% Model:              Contactor_heat.mph
% Version:            COMSOL 5.4.0.225
% Date:               May 29 2019, 14:06
% Dimension:          2
% Nodes:              6988
% Expressions:        1
% Description:        温度
% Length unit:        m
% R                       Z                        T (K)
3.153064140669177E-4      -0.02492775274462617     370.9093518720431
0                         -0.024797537541389594    371.6716650683038
0                         -0.025246921926737       369.0452901986427
4.905660377361461E-4      -0.025246921926736998    369.04362493740587
3.54849868308301E-4       -0.02456110244961605     373.0548743646645
0                         -0.02434815315604219     374.3037594975897
7.38331741240885E-4       -0.024840776923699667    371.41483777702564
9.811320754719893E-4      -0.025246921926736998    369.03859897875486
3.535304006193641E-4      -0.024127481563622176    375.59747825072424
0                         -0.023898768770694787    376.9416115903962
0.0012542768948205904     -0.02486303897048769     371.27726661335464
0.0014716981132078324     -0.025246921926736998    369.0301366146726
0.0017340879567455886     -0.024871377533578903    371.2181050000041
0.0019622641509436755     -0.025246921926736998    369.01811787620426
3.579049499838733E-4      -0.02369266628652287     378.1524358366021
0                         -0.023449384385347383    379.5851394588487
3.204833557381833E-4      -0.023323834804657675    380.32399485503885
0                         -0.023                   382.234128209424
0.002219465436071664      -0.024874248765864374    371.18717036309175
0.0024528301886795187     -0.025246921926736998    369.002387633278
0.0027061688844309765     -0.024875528601003904    371.1616661604744
0.0029433962264153618     -0.025246921926736998    368.982774149091
4.957446808510641E-4      -0.022999999999999996    382.23257011278093
0.0031947335539296057     -0.024876176642930865    371.13573947342735
0.003433962264151205      -0.025246921926736998    368.9591137030493
7.474391375388344E-4      -0.023415804521318966    379.7791092844409
9.914893617021282E-4      -0.022999999999999996    382.22784932416727
0.0036845373160815163     -0.024876585796099453    371.1069196991912
0.0039245283018870475     -0.025246921926736998    368.93128433954394
0.0012647499293247269     -0.023392179776808953    379.9111331740532
0.0014872340425531923     -0.022999999999999996    382.21982832233726
0.004175094187980608      -0.02487686710323124     371.07445583837244
0.004415094339622891      -0.025246921926736998    368.89924620174617
0.0017490252590800469     -0.02338522818950799     379.94187548304757
0.0019829787234042565     -0.022999999999999996    382.2082646049251
0.0046661497662175274     -0.024877116960372928    371.03778903039205
0.004905660377358734      -0.025246921926736998    368.86308220346126
0.0022350211840168497     -0.023381009264025962    379.95279429431093
0.00247872340425532       -0.022999999999999996    382.19280117243096
0.0027244354676526058     -0.02337990077070151     379.94119649223563
0.0029744680851063843     -0.022999999999999996    382.17294659041994
0.00515744199060957       -0.024877255250480016    370.9975510007009
0.005396226415094577      -0.025246921926736998    368.8230276985635
0.0032164120613266687     -0.023379479895103146    379.9208642464973
0.003470212765957448      -0.022999999999999996    382.1480577172377
0.003709800137603577      -0.023379397801343998    379.8933122409754
0.003965957446808512      -0.022999999999999996    382.1173376009485
0.005648886591329997      -0.024877312162904192    370.9538961504198
0.00588679245283042       -0.025246921926736998    368.77947539417664
0.004203146392503272      -0.0233805894201201      379.85250818050787
0.004461702127659576      -0.022999999999999996    382.07988572821523
0.006140438912513327      -0.024877326199023806    370.9070938124055
0.0063773584905662635     -0.025246921926736998    368.73294628362163
0.0066321886733237195     -0.024877480665150362    370.85667180991885
0.006867924528302106      -0.025246921926736998    368.6840296523371
0.004698064885769343      -0.023380280977893415    379.81416192267176
0.00495744680851064       -0.022999999999999993    382.0348764634235
0.007124005600943781      -0.0248775667797155      370.8044981809422
0.00735849056603795       -0.025246921926736998    368.63330933387505
0.0076158530436536975     -0.024877402137822063    370.75222771995135
0.007849056603773793      -0.025246921926736998    368.58129913109747
0.005193295460511869      -0.023379765891058158    379.7704646150118
0.0054531914893617035     -0.023                   381.9819593488307
0.008107676140252155      -0.024877101833902255    370.69968038768985
0.008339622641509635      -0.025246921926736998    368.52840361978156
0.008599420356058351      -0.024876866423397186    370.64605220781567
0.008830188679245479      -0.025246921926736998    368.47490724332897
0.009091130186517995      -0.024876673355652898    370.59169881327495
0.009320754716981322      -0.025246921926736998    368.42098420982694
0.009582722538826858      -0.024876633944751907    370.536108093809
0.009811320754717166      -0.025246921926736998    368.3667184859402
0.0056884446472742906     -0.0233795095468918      379.7190075790273
0.005948936170212767      -0.022999999999999996    381.9218250089319
0.010074427471321685      -0.024876398043776966    370.4813237248581
0.010301886792453007      -0.025246921926736998    368.31212532359524
0.010565841618745093      -0.024876826608166917    370.4223910785627
0.010792452830188851      -0.025246921926736998    368.2571694689106
0.011057835624370155      -0.02487617890053002     370.3692177506153
0.011283018867924694      -0.025246921926736998    368.20177819593044
0.011549767817351843      -0.024875940642876987    370.31318856055236
0.011773584905660538      -0.025246921926736998    368.1458489222241
0.006183432211737567      -0.023379540169793437    379.66067434097835
0.00644468085106383       -0.022999999999999996    381.85644249742717
0.012041654450289069      -0.02487585777134564     370.25565143523545
0.01226415094339638       -0.025246921926736998    368.0892517084199
0.01253350817798976       -0.024875754549712508    370.1974709787027
0.012754716981132223      -0.025246921926736998    368.0318268669393
0.006678596808187686      -0.02337943033145361     379.59953684952256
0.006940425531914893      -0.022999999999999996    381.7883918641184
0.013025262255134111      -0.024875802329288123    370.1374854870632
0.013245283018868067      -0.025246921926736998    367.9733775038797
0.00717400772960682       -0.023379233236328994    379.5369235380988
0.0074361702127659565     -0.022999999999999996    381.7197468762147
0.0076695171664841475     -0.023379035232243203    379.47358904015636
0.00793191489361702       -0.022999999999999996    381.65159433637064
0.008165000538591967      -0.023378839158693654    379.4102330687005
0.008427659574468083      -0.022999999999999993    381.58426847576976
0.008660336843073631      -0.02337872747722997     379.3466739318326
0.008923404255319147      -0.022999999999999996    381.5177282880859
0.01351697873896561       -0.024875772747747684    370.07677922565387
0.013735849056603909      -0.025246921926736998    367.9136562150827
0.014008684671572466      -0.024875810563516832    370.014228957599
0.014226415094339752      -0.025246921926736998    367.85234441371836
0.009155537532088765      -0.02337866860832871     379.28313647884494
0.00941914893617021       -0.022999999999999996    381.4517952366877
0.009650724045791599      -0.023378547105509104    379.22020087348204
0.009914893617021274      -0.022999999999999996    381.38625832794656
0.010145914624578098      -0.023378386129817973    379.15760388667076
0.010410638297872336      -0.022999999999999993    381.32091193856263
0.010641121903216427      -0.023378226281100287    379.0949648115913
0.0109063829787234        -0.022999999999999996    381.2555669815572
0.014500375815534284      -0.024875915418695157    369.94946583033476
0.014716981132075596      -0.025246921926736998    367.7890217578012
0.01499203582054432       -0.024876061741992694    369.88214362803814
0.01520754716981144       -0.025246921926736998    367.7231218080711
0.015483680118985106      -0.02487617650263045     369.81200577597866
0.01569811320754728       -0.025246921926736998    367.65386813844975
0.015975356996724404      -0.024876212218695636    369.73838602881716
0.016188679245283125      -0.025246921926736998    367.58018238353196
0.011136384992991596      -0.023378081731007177    379.03204990523767
0.011402127659574463      -0.023                   381.19005270574075
0.011631696883813812      -0.023377982832851318    378.9685395336249
0.011897872340425527      -0.022999999999999996    381.12421545356483
0.012126998385911447      -0.023377945653462864    378.90420693367463
0.01239361702127659       -0.022999999999999996    381.0579166415848
0.012622251982432102      -0.023377942728259955    378.8390764757244
0.012889361702127655      -0.022999999999999996    380.9910306892095
0.01646714414758192       -0.024876184017030446    369.65988209352366
0.016679245283018968      -0.025246921926736998    367.5005517148822
0.016959204406630773      -0.024876148157276363    369.5743025297482
0.01716981132075481       -0.025246921926736998    367.41283741734014
0.013117458193180151      -0.02337792529825306     378.7732891296204
0.01338510638297872       -0.022999999999999996    380.92344318403275
0.01361262777911122       -0.023377887895133592    378.70672787919074
0.013880851063829785      -0.022999999999999996    380.85504934952604
0.01745173777315845       -0.024876222614627724    369.47830818059816
0.017660377358490655      -0.025246921926736998    367.3139978997471
0.014107770024226987      -0.0233778721097147      378.6389918743464
0.014376595744680849      -0.022999999999999996    380.7857528724613
0.0179449623933273        -0.024876648059788124    369.3667012225781
0.0181509433962265        -0.025246921926736998    367.1996878590559
0.01843899920274306       -0.024878159939909574    369.22978288363043
0.01864150943396234       -0.025246921926736998    367.06367991961014
0.014602904109104886      -0.023377922349946456    378.5696421771822
0.014872340425531913      -0.022999999999999996    380.71546518508643
0.015098047284306748      -0.023378029342899707    378.49851736044525
0.015368085106382979      -0.022999999999999996    380.6441054432001
0.01893286239026873       -0.024882724530377688    369.04870089551883
0.019132075471698182      -0.025246921926736998    366.8970370719376
0.01942089880405201       -0.024891789361484284    368.80636365514937
0.019622641509434026      -0.025246921926736998    366.6869458966593
0.019887109798142337      -0.024918327277179825    368.42295581650893
0.02011320754716987       -0.025246921926736998    366.4151689872595
0.015593189240691191      -0.023378152924305024    378.4255888088742
0.015863829787234045      -0.022999999999999996    380.5716017451541
0.01608836521645723       -0.023378247399136794    378.35078157477506
0.016359574468085107      -0.022999999999999996    380.49789480361704
0.016583690155193443      -0.023378263872315345    378.27392513617275
0.016855319148936173      -0.023                   380.42294658124257
0.01707941436204574       -0.023378213110761856    378.1943381628749
0.017351063829787235      -0.022999999999999996    380.34675892380454
0.02031027152313343       -0.024915458972301133    368.1725862315548
0.020603773584905716      -0.025246921926736998    366.05595458496896
0.020793376738351466      -0.02489186474801625     367.9125448184705
0.02109433962264156       -0.025246921926736998    365.5739502118952
0.017576036344112807      -0.02337819023080008     378.11060168702664
0.0178468085106383        -0.022999999999999996    380.2694113347825
0.018074502729613723      -0.02337825095438285     378.02114017489527
0.018342553191489367      -0.022999999999999996    380.191130298668
0.02128023569221177       -0.024883377702821573    367.4253834214574
0.021584905660377404      -0.025246921926736998    364.9224310571373
0.02177901494724672       -0.024884000543243936    366.67482703103013
0.022075471698113244      -0.025246921926736998    364.04483058163186
0.0185756181678143        -0.023377715831609216    377.92826693723515
0.01883829787234043       -0.022999999999999996    380.11239597837044
0.022288634313288577      -0.0248926288934877      365.5852910631341
0.022566037735849087      -0.025246921926736995    362.8833868885443
0.022787201400498985      -0.02486831552178009     364.3777452984704
0.023056603773584934      -0.025246921926737       361.39986061487224
0.019081439931102596      -0.023375218235494828    377.83759484588205
0.019334042553191495      -0.023                   380.0340517530694
0.01957911581516975       -0.02337842520031476     377.70310391665043
0.01982978723404256       -0.022999999999999996    379.9573249140967
0.02328692322560331       -0.02486356653277193     362.68435123508635
0.023547169811320778      -0.025246921926736998    359.60235084463176
0.020081241796883035      -0.02338509567579794     377.5290682050943
0.020325531914893624      -0.022999999999999993    379.8837031152132
0.02058441049115947       -0.02338350676031435     377.38072701104215
0.02082127659574469       -0.022999999999999996    379.81476838308157
0.023777765633773863      -0.024878177236475753    360.59458219564135
0.02403773584905662       -0.025246921926736995    357.5574339025629
0.021085918383980447      -0.023379111576189153    377.2151728259378
0.021317021276595752      -0.022999999999999996    379.7520116093604
0.021588064566641904      -0.02337859376624114     376.96414579496656
0.021812765957446818      -0.022999999999999996    379.6964127823619
0.024275064669685736      -0.02485973997458262     358.4392018591563
0.024528301886792465      -0.025246921926737       355.3676889756591
0.024771589312219927      -0.024859785439057328    356.09361980705216
0.02501886792452831       -0.025246921926736998    353.13334518031957
0.022078636330622136      -0.023378347546371636    376.6119448640836
0.022308510638297883      -0.022999999999999996    379.6477882395141
0.022559484866367094      -0.023375887382339748    376.0748804375923
0.022804255319148946      -0.022999999999999996    379.6040110143592
0.02525710848844775       -0.02487893417658706     353.71894848115954
0.025509433962264152      -0.025246921926737       350.92702722720315
0.025668221774819568      -0.024924847534566606    351.632519194377
0.026000000000000002      -0.025246921926737       348.7881437785947
0.023022655623652022      -0.02338093018446283     374.9280282556158
0.0233                    -0.023                   379.54981645742953
0.025999999999999995      -0.02475226912647506     350.88355061028705
0.023701979675909188      -0.022731083301356796    374.5105049059516
0.0233                    -0.0225054945054945      379.59434482237003
0.025999999999999995      -0.02425761632621309     352.9212010180875
0.025569975985247857      -0.024497600148761373    353.93032437862763
0.023690376863635988      -0.02225140854593303     375.73186250947396
0.0233                    -0.022010989010989006    379.61079220108087
0.025602409348726523      -0.023980348813482568    355.94181901481903
0.025999999999999995      -0.02376296352595112     354.8621398269843
0.02368756784920148       -0.021762882280304863    376.27389090161324
0.023300000000000005      -0.02151648351648351     379.61475245483325
0.02560694977146109       -0.023500733612419226    357.8019233444007
0.025999999999999995      -0.023268310725689148    356.6505838950636
0.023686711924312192      -0.021270798578751585    376.58025475141704
0.023299999999999998      -0.021021978021978017    379.6096259518095
0.025611339866099547      -0.023012097381731194    359.5099868179225
0.025999999999999995      -0.02277365792542718     358.2305023614999
0.023686552620110463      -0.020777351125066738    376.77143848405655
0.0233                    -0.020527472527472522    379.5984097131825
0.02561261340387305       -0.02252022465664219     361.00166702401407
0.025999999999999995      -0.02227900512516521     359.5644318739099
0.02368637645833563       -0.02028317998650833     376.8982667010487
0.0233                    -0.020032967032967027    379.5840546647232
0.025613327946522983      -0.022027130866760912    362.2306044273514
0.025999999999999995      -0.021784352324903236    360.64472146287727
0.023686093874257155      -0.019788755993598427    376.9846909939201
0.0233                    -0.019538461538461532    379.56894678501203
0.025613896130239355      -0.0215334684072727      363.2021469613714
0.025999999999999995      -0.021289699524641267    361.49074645968625
0.023685770834035457      -0.019294268934934192    377.0441912000202
0.0233                    -0.01904395604395604     379.5546253679992
0.02561414515715434       -0.021039605162367418    363.9497191628761
0.025999999999999995      -0.020795046724379297    362.137363466335
0.023685457030603384      -0.01879978955378561     377.0853963138516
0.0233                    -0.018549450549450543    379.54193104353345
0.025614145273042815      -0.020545462088506956    364.514745773233
0.025999999999999995      -0.020300393924117328    362.62346736804926
0.023685269552505633      -0.01830519971052795     377.11356645327396
0.0233                    -0.01805494505494505     379.53127611064605
0.025613931361189796      -0.02005108311844719     364.93707479664977
0.025999999999999995      -0.019805741123855358    362.9849705624576
0.023685174731659597      -0.01781054771697173     377.1330327919627
0.0233                    -0.017560439560439553    379.52284929936803
0.025613580920631807      -0.019556523602305666    365.25047040178885
0.025999999999999995      -0.01931108832359339     363.2519591521439
0.02368518773938248       -0.017315858590213545    377.1465866731621
0.0233                    -0.01706593406593406     379.5167325230539
0.02561321463195591       -0.019061779690353813    365.48171892185
0.025999999999999995      -0.018816435523331412    363.4483229333027
0.023685238110602316      -0.016821129551252572    377.15671185347895
0.0233                    -0.016571428571428563    379.5129592453563
0.025612942344014438      -0.01856688143467484     365.65146026152973
0.025999999999999995      -0.018321782723069443    363.5924636049987
0.023685263839027623      -0.01632636936869825     377.1652568431388
0.0233                    -0.016076923076923072    379.5115416915878
0.025612819675016125      -0.018071900383613882    365.77552196135485
0.025999999999999995      -0.017827129922807473    363.6983085574356
0.023685217172771948      -0.015831558735148275    377.17357680514027
0.0233                    -0.015582417582417574    379.5124834098048
0.02561274791701852       -0.017576858062807697    365.86658392142425
0.025999999999999995      -0.017332477122545504    363.77629029812016
0.02368512823129791       -0.015336763440591062    377.1822683465571
0.0233                    -0.015087912087912077    379.51578458428
0.02561257033903506       -0.01708171870421931     365.9345627577903
0.025999999999999995      -0.016837824322283534    363.8341751849942
0.023685037959954705      -0.01484207628787692     377.1916570574856
0.0233                    -0.014593406593406584    379.52144433012876
0.025612243697307108      -0.01658648950130649     365.98640311661933
0.025999999999999995      -0.01634317152202156     363.8777230740022
0.0236850422767111        -0.014347585036238496    377.2015881997891
0.0233                    -0.014098901098901086    379.529461652512
0.02561208914060506       -0.016091432694410678    366.0252742114007
0.025999999999999995      -0.015848518721759595    363.91119578445137
0.023685184014922086      -0.013853256965902347    377.21211654902294
0.0233                    -0.013604395604395594    379.53983578812495
0.025611020851040722      -0.015595783748328833    366.0609109180941
0.025999999999999995      -0.015353865921497623    363.9377422989232
0.023685387342813825      -0.013358991454754623    377.22392586016736
0.0233                    -0.013109890109890096    379.55256630552435
0.025609476021401578      -0.015099758972658325    366.0935741739452
0.025999999999999995      -0.014859213121235653    363.9596870967719
0.02368553344707296       -0.012864704905647785    377.23789560620844
0.0233                    -0.012615384615384603    379.56765310976306
0.025610833761414098      -0.014606196675968094    366.1064525905545
0.025999999999999995      -0.014364560320973684    363.97874501954965
0.0236855790970395        -0.012370354531117934    377.2544085870743
0.0233                    -0.012120879120879106    379.5850964133458
0.02561030390007049       -0.014111069704064415    366.1277046360588
0.025999999999999995      -0.01386990752071171     363.99618067157667
0.023685519805701345      -0.011875906767102602    377.2735843756168
0.0233                    -0.011626373626373613    379.60489670435214
0.02561147243865226       -0.013617389569008624    366.1384524836381
0.025999999999999995      -0.01337525472044974     364.0129261599174
0.02368542179777161       -0.011381384115308028    377.295094698545
0.0233                    -0.011131868131868117    379.62705471229066
0.02561143012832558       -0.013122565360794177    366.15568330622887
0.025999999999999995      -0.012880601920187768    364.02966816120284
0.023685364252430768      -0.010886809719879422    377.3185157734418
0.0233                    -0.010637362637362618    379.6515713830551
0.025611658596170418      -0.012628187642589392    366.17173027298645
0.025999999999999995      -0.012385949119925799    364.04691208652304
0.02368533788676948       -0.01039220622920301     377.3439383247833
0.0233                    -0.010142857142857127    379.67844785828567
0.02561205229515755       -0.012134120970879158    366.187612355885
0.025999999999999995      -0.01189129631966383     364.06502938412433
0.02368535806618562       -0.009897633147647031    377.37129300134785
0.0233                    -0.009648351648351632    379.7076854586221
0.025611407733099268      -0.011638971902606791    366.21036216420384
0.025999999999999995      -0.01139664351940186     364.08429211054266
0.023685414311749888      -0.009403147922018663    377.40065589196206
0.0233                    -0.009153846153846136    379.7392856695389
0.02561196906599736       -0.011144895802292672    366.22770437784
0.025999999999999995      -0.01090199071913989     364.1048985641389
0.02368546776858449       -0.00890873958149641     377.4322699148677
0.0233                    -0.008659340659340639    379.7732501237476
0.02561154345590058       -0.010649797480050002    366.25203535275836
0.025999999999999995      -0.010407337918877919    364.1269915369951
0.02368554932247248       -0.008414409110959314    377.46595486546767
0.0233                    -0.008164835164835148    379.8095805778339
0.025612090745062977      -0.010155679427320609    366.2725320118415
0.025999999999999995      -0.009912685118615948    364.1506718253257
0.02368583325159097       -0.007920275574642404    377.5006577678859
0.0233                    -0.007670329670329652    379.8482788638277
0.025611794736570066      -0.009660775630212797    366.2994220009309
0.025999999999999995      -0.009418032318353975    364.17600741057754
0.02368544596132961       -0.007425499464322462    377.54166835817364
0.0233                    -0.0071758241758241555   379.88934678551897
0.025611140049261044      -0.009165510137981442    366.33006151846615
0.025999999999999995      -0.008923379518092005    364.2030397374286
0.023685539078122264      -0.006931053175724002    377.58200761653967
0.0233                    -0.00668131868131866     379.93278589384454
0.025611586754420806      -0.00867142476120815     366.35629549027595
0.025999999999999995      -0.008428726717830036    364.2317876341603
0.023685484670098494      -0.006436553441800777    377.62544643229916
0.0233                    -0.006186813186813165    379.9785969854466
0.025611277937121774      -0.008176652433286006    366.3885346331038
0.025999999999999995      -0.007934073917568065    364.2622488129909
0.023685976290632457      -0.0059424579409715975   377.66775336023926
0.0233                    -0.005692307692307672    380.0267789905563
0.025610625217224865      -0.007681514250854227    366.4244721808521
0.025999999999999995      -0.007439421117306095    364.2943996048605
0.02368580289605686       -0.0054478713094199835   377.71623073233786
0.0233                    -0.005197802197802175    380.0773265092869
0.025611081202011433      -0.007187265214974836    366.4559226012713
0.025999999999999995      -0.006944768317044126    364.32819291840605
0.023685649994675675      -0.004953131495829997    377.7666719295093
0.0233                    -0.0047032967032966805   380.1302243737585
0.025610169606250083      -0.006691701464271767    366.4967309922503
0.025999999999999995      -0.006450115516782155    364.36355367886046
0.02368581690992876       -0.004458723384045578    377.81712110867716
0.0233                    -0.004208791208791186    380.18543570229014
0.025610819631665577      -0.006197655302481301    366.530324985006
0.025999999999999995      -0.005955462716520185    364.4003726766837
0.023686056232396432      -0.0039645104995288324   377.8689069671568
0.0233                    -0.003714285714285691    380.242875925797
0.025609958922574293      -0.005702140159957597    366.57387693273853
0.025999999999999995      -0.005460809916258214    364.4384970463696
0.023686240418213985      -0.0034702695244168747   377.9225497772615
0.0233                    -0.0032197802197801943   380.30235746626363
0.025610685602903204      -0.005208229554039557    366.60973322378914
0.025999999999999995      -0.004966157115996243    364.47771884395644
0.023686308668149872      -0.002975934363167955    377.97797839050963
0.0233                    -0.0027252747252746977   380.36347696817734
0.02560973867776481       -0.0047126001383100725   366.6560671502925
0.025999999999999995      -0.004471504315734273    364.5177599504595
0.02368620103650876       -0.002481347317658445    378.0348362283269
0.0233                    -0.0022307692307692046   380.4254061593859
0.025610236663057135      -0.004218476348432793    366.69492270507544
0.025999999999999995      -0.003976851515472304    364.5582557789084
0.0236862559302074        -0.0019868240616743834   378.08984732260683
0.0233                    -0.0017362637362637115   380.4865772154738
0.025609516459621156      -0.003723066454404267    366.7409499648092
0.025999999999999995      -0.0034821987152103308   364.59873758496974
3.487264370368131E-4      0.02267816384849619      377.6157218273934
0                         0.022887343239784006     376.3918119625653
0                         0.022443671619892004     378.9918285537282
0                         0.022                    381.5986958438739
3.1443844468182793E-4     0.022320401794753843     379.7145826193476
0.02368637439015564       -0.0014923151128858364   378.1418388492525
0.0233                    -0.001241758241758215    380.5444156110022
0.02561028840915991       -0.003229238783436073    366.77825040793067
0.025999999999999995      -0.0029875459149483613   364.6386186189922
3.534780977685521E-4      0.023103141529603202     375.12858749164894
0                         0.023331014859676008     373.7987150030722
4.999999999999985E-4      0.021999999999999995     381.59657589140414
0.023686236426686352      -9.977651134212965E-4    378.19046201064157
0.0233                    -7.472527472527166E-4    380.5955469612122
0.025609419948196932      -0.00273366457021141     366.82391543274076
0.025999999999999995      -0.00249289311468639     364.67718706763617
3.5741260616657986E-4     0.02353264407630526      372.6214361390821
0                         0.023774686479568007     371.21250071456166
3.2248609677576717E-4     0.023898430836769933     370.49150541648
0                         0.02421835809946         368.633045756583
9.999999999999987E-4      0.021999999999999995     381.5901681664271
7.242168196924686E-4      0.022417116432877617     379.1430861146863
0.02368597498486219       -5.029934428526369E-4    378.2324614260745
0.0233                    -2.5274725274722354E-4   380.63674634084833
0.025610385144247193      -0.0022400517852966735   366.85743629380863
0.025999999999999995      -0.0019982403144244206   364.7136146376467
4.905660377358492E-4      0.02421835809946         368.6310364947811
0.001247838171697827      0.02236713985449974      379.4273640670676
0.001499999999999999      0.021999999999999995     381.5793266637711
0.023685863599847104      -8.100219184401493E-6    378.2640756718002
0.0233                    2.4175824175826782E-4    380.66591383053964
0.025609392505884843      -0.0017443313229686143   366.89940525657835
0.025999999999999995      -0.0015035875141624511   364.74698351961456
7.468600676894376E-4      0.02381739326009901      370.9591257385424
9.811320754716983E-4      0.024218358099460005     368.6249865232431
0.0017525301543477965     0.022367762503180944     379.41017655730457
0.002                     0.022                    381.5638104647356
0.02368609853495644       4.864383570517296E-4     378.28273511816093
0.0233                    7.362637362637627E-4     380.682163362308
0.025610224445841424      -0.0012505947141110841   366.92737334214775
0.025999999999999995      -0.0010089347139004782   364.776337133597
0.0012599171541572618     0.023830705006903985     370.8727772549127
0.0014716981132075477     0.024218358099460005     368.61484689016805
0.0022483800531428455     0.022366800323302405     379.3977243951158
0.0024999999999999996     0.022                    381.5432681678423