% Model:              Contactor_heat.mph
% Version:            COMSOL 5.4.0.225
% Date:               May 27 2019, 14:52
% Dimension:          2
% Nodes:              751
% Expressions:        1
% Description:        温度
% Length unit:        m
% R                       Z                        T (K)
0.0012084379060415306     -0.02411806906818086     375.554923034632
0                         -0.023                   382.1389114711111
0                         -0.025246921926737       368.9640456819262
0.002404060974253029      -0.022999999999999996    382.10019012294083
0.0024297653804070275     -0.025246921926736998    368.92283956367476
0.005076366912020051      -0.023                   381.93036317777756
0.0053091873659134444     -0.025246921926736998    368.75030370944637
0.007810795306988209      -0.023                   381.5760885418608
0.008250802783381181      -0.025246921926736998    368.4594588089902
0.010545601504500374      -0.022999999999999996    381.21027014977216
0.011194934392106825      -0.025246921926736998    368.1323410466745
0.013141971058861416      -0.022999999999999996    380.86286288403255
0.014628571999401489      -0.023879712865838336    375.58119331031406
0.015289150715739556      -0.022999999999999996    380.5611313074375
0.015942820445117002      -0.02404169769615812     374.45606609145625
0.01702698240694755       -0.022999999999999993    380.3019413575646
0.014139066000832468      -0.025246921926736998    367.7828600435537
0.01743982258970167       -0.02378017166403525     375.715637738204
0.018509001563200476      -0.022999999999999996    380.06976122011366
0.017083197609558114      -0.025246921926736998    367.3489473914314
0.01898931004525445       -0.023926565338593733    374.5143895837821
0.019923889655640587      -0.022999999999999996    379.8480921401863
0.02002732921828376       -0.025246921926736998    366.40322693144117
0.020922728776913316      -0.024028243087977585    373.05881739414303
0.021401232818794882      -0.022999999999999996    379.6477412988661
0.02297270991243819       -0.025246921926736998    361.86945742107065
0.02222190101106804       -0.0237490493357978      373.5437898105825
0.0233                    -0.023                   379.45460457704655
0.024633191038846168      -0.023129578883237255    365.2454066500769
0.026000000000000002      -0.025246921926737       348.94266087617547
0.0233                    -0.020900130570405896    379.5145168388053
0.025999999999999995      -0.021949236591657116    360.45735292002564
0.024389464292076113      -0.019597521219267954    372.4381945380703
0.0233                    -0.018887913802741255    379.45831890445044
0.02444029356453361       -0.01772116861642163     372.494172222618
0.0233                    -0.016426663995396232    379.42050411089144
0.025999999999999995      -0.01865155125657732     363.44270576250847
0.025999999999999995      -0.015353865921497529    363.86465246431703
0.0233                    -0.013673448036964991    379.446574993531
0.025999999999999995      -0.012056180586417737    363.9851911214123
0.023300000000000005      -0.010920232078533754    379.54567950123356
0.025999999999999995      -0.00875849525133794     364.13832951222656
0.0233                    -0.008167016120102516    379.7178374673778
0.024586647079501235      -0.003620199921077847    372.4902300475057
0.0233                    -0.002996942397330329    380.2377445155671
0.0233                    -0.005457790065734415    379.95879414037563
0.025999999999999995      -0.005460809916258148    364.36475736349024
0.024341227394654733      -0.001969880570857631    374.0844034541718
0.0233                    -8.520674035097132E-4    380.49294704293703
0.025999999999999995      -0.0021631245811783543   364.6260389472168
0.0015183056622163301     0.023097610688767128     375.0523197993366
0                         0.02421835809946         368.5507275679099
0                         0.022                    381.5019713811596
0.024519489893772433      -2.1706855119191034E-4   373.1598292486869
0.0233                    0.001066113083985092     380.59130721829905
0.025999999999999995      0.0011345607539014393    364.7611432297504
0.002                     0.022                    381.4673115700127
0.00236140009977249       0.024218358099459998     368.5038831318731
0.024250931679048265      0.0016007802699224871    374.7785032106483
0.0233                    0.0029141076797892327    380.50477600533344
0.0244713070710679        0.0034378923100507265    373.37848205673384
0.025999999999999995      0.004432246088981233     364.61812562268443
0.0032280105749350665     0.023057037978778935     375.21479425462115
0.003968469002368879      0.022                    381.35363237476963
0.004985372575953509      0.02421835809946         368.3364166931654
0.0233                    0.004879644700738725     380.27402463434856
0.024401929702270876      0.005644545279699192     373.58004576604213
0.025999999999999995      0.0077299314240610265    364.3516336797175
0.004521810291054634      0.022842105388166185     376.3727560109983
0.006                     0.022                    381.1275750262973
0.007715791983300476      0.02421835809946         368.0648865084917
0.0233                    0.007119202228888121     380.009015368412
0.024633393741560254      0.009342398604269778     371.8980022358054
0.025999999999999995      0.01102761675914082      364.1149134612175
0.008540751065877664      0.022                    380.76994829453815
0.010707386444162302      0.02421835809946         367.75467936599085
0.0233                    0.009737034194970162     379.7569182260134
0.024633393741560254      0.01281800913965844      371.6583527296241
0.025999999999999995      0.014325302094220616     363.91322436202364
0.01160182238618572       0.022                    380.39698340273367
0.013744795969469537      0.02421835809946         367.466759586888
0.02456696870780128       0.011098208414288768     372.1520013921694
0.0233                    0.012489964110174662     379.5621847670314
0.0233                    0.015148954320467327     379.4424321973326
0.025999999999999995      0.017622987429300414     363.4124113391605
0.014499242478348653      0.022                    380.08881965633776
0.016782205494776773      0.024218358099459998     367.1529345346246
0.0245878986821373        0.019093754652882038     370.943284589061
0.025999999999999995      0.020920672764380206     360.3918912049951
0.0233                    0.01757023650594271      379.3911758754876
0.02139954274579114       0.02306818332217653      372.23968809623284
0.02285758162752222       0.02421835809946         362.3069812966278
0.019819615020084006      0.02421835809946         366.4449009389105
0.026000000000000002      0.02421835809946         348.9765259166866
0.0233                    0.022                    379.27163510233567
0.018546095592847096      0.02299752464335978      373.87682201859883
0.016957093054814094      0.022                    379.84235854265853
0.024285930262829145      0.02036734683864236      371.9704561160427
0.0233                    0.01971014533736604      379.3772715729911
0.021037302937424424      0.022                    379.46067547433114
0.01998321414392507       0.022904200411962665     374.0743664786453
0.01908654258802278       0.022                    379.63473304850805
0.0015557972985999107     -0.021401942526202235    382.1896793312685
0.0032721268022092315     -0.021424561891818725    382.14111103010697
0                         -0.020333509950991945    382.2746077623016
0.006568368770941565      -0.021700600131585267    381.7976963220353
0.007398477591812655      -0.020999999999999998    381.70079822358093
0.006                     -0.021                   381.98059283387795
0.002315674294938976      -0.018950113902023894    382.3848210333427
0                         -0.017113313124462952    382.5510541646595
0.004909010690164134      -0.020375682751428828    382.18658174648266
0.006                     -0.019600799216508927    382.31376499948715
0.0078113947650915        -0.021697206626016742    381.61407959235265
0.008629303870291706      -0.020999999999999998    381.5295996133866
0.004977955282875438      -0.019009640743718585    382.379595626238
0.006                     -0.018241711872252667    382.50253317471714
0.00916577043025511       -0.02167825656533496     381.43031338317064
0.00204791909663581       -0.01604187797545767     382.6484194321977
0                         -0.013752999156075658    382.79728859628773
0.009746279015934969      -0.020999999999999998    381.3805510465757
0.010500130656013658      -0.021651482070650728    381.25445148912684
0.0108567880081211        -0.020999999999999998    381.2341496057891
0.011559137848960925      -0.021830405883621198    381.10793366479544
0.011967297000307232      -0.020999999999999998    381.087161470127
0.006                     -0.016914817540675885    382.6471607839656
0.004930681149885608      -0.017712392951852347    382.5338521557662
0.006                     -0.015590948925045232    382.765441514794
0.004870284880579572      -0.0163996602134304      382.66283201733273
0.006                     -0.014267080309414575    382.8617911226561
0.00482720997586194       -0.015036368240818153    382.7736040162866
0.006                     -0.012943211693783922    382.9378351997438
0.004753567158367139      -0.013659946291184548    382.8624395478728
0.006                     -0.011619343078153268    382.9942939313171
0.004727556080482274      -0.012282242831399932    382.9311947182007
0.004954709412033092      -0.00826528628530798     383.02043309243595
0.005999999999999999      -0.00897160584689196     383.0495700341473
0.006                     -0.007647737231261307    383.04844998024754
0.006                     -0.010295474462522613    383.03149881366636
0.004759538031524664      -0.010905282140931555    382.9804580749546
0.004876925338001924      -0.009600997151333888    383.0102609331985
0.012832356309693113      -0.021644769492811144    380.94397946797744
0.01307780599249336       -0.020999999999999998    380.9378585919889
0.01418831498467949       -0.020999999999999998    380.7849347107992
0.013869401664648708      -0.021885193514939526    380.7930399929281
0.015019462814449984      -0.021649669734952023    380.6393983923099
0.01529882397686562       -0.020999999999999998    380.6272623907425
0.01595008596208066       -0.02182135319033175     380.4974072889301
0.001857635176062036      -0.01224029965613945     382.88202047866326
0                         -0.010392697296651073    382.9321384520114
0.005027592657502492      -0.006945523691107771    383.01110524239175
0.006                     -0.006323868615630654    383.0278199643006
0.01640933296905175       -0.020999999999999998    380.46387747760735
0.017066852146329872      -0.02168710344168908     380.33395709331376
0.017519819674316196      -0.020999999999999998    380.29369809485047
0.01799739249056561       -0.02198477088125935     380.17745035802
0.018538444318855568      -0.020999999999999998    380.1294395722291
0.004161410116722155      -0.006034942107022338    382.9713660255307
0.004831572067069012      -0.005                   382.95363254662834
0.0034750677782974812     -0.005                   382.92696888890856
0.002245910462389149      -0.00852931015532195     382.96833165626464
0                         -0.00736363946970027     382.950969172369
0.005184298191656434      -0.005883505506006604    382.9920450611512
0.006                     -0.005                   382.98680141292346
0.0194                    -0.021                   379.9738544925705
0.019045485269437855      -0.022076593689367895    380.0054494164354
0.002                     -0.005                   382.90988168511916
0.0028697075342365617     -0.006472350452647346    382.95852234867783
0                         -0.005                   382.9020703921374
0.0014194024421753048     -0.006501216967525013    382.94388930458877
0.02024065172285322       -0.020999999999999998    379.82255158821204
0.019885010781670605      -0.02181360507529741     379.8742065839753
0.020815027260421358      -0.021991431687119162    379.7331645427241
0.0213                    -0.021                   379.62967136076406
0.0220730477372484        -0.02161133909232517     379.5871080589791
0.02222998122875453       -0.020168652213518195    379.5229946223298
0.0213                    -0.019679672164342746    379.5143628842723
0.02210581691177305       -0.018937215205928438    379.480892350074
0.0213                    -0.01815313658899606     379.4662785651654
0.022261163382354603      -0.017707079053167662    379.45062646380904
0.0213                    -0.01613046567277635     379.4435168078401
0.0213                    -0.013693596853379576    379.4695667452213
0.0213                    -0.011059057748607961    379.562348009764
0.0213                    -0.008419894513392073    379.7223847080683
0.022265385254868948      -0.004276907201515662    380.10303116071964
0.0213                    -0.0039181579524452444   380.1515527467056
0.0213                    -0.00596751431362142     379.93152760101293
0.022126926274344746      -0.0030441312784468986   380.2526430916308
0.0213                    -0.00234103706336757     380.3538747274906
0.022160412361809937      -0.0017373376224064957   380.4255175279973
0.0213                    -0.0010000000000000007   380.6211244492808
0.0213                    1.1528069083332549E-4    380.7241046115749
0.02221179209430367       -2.6385223129098964E-4   380.5970579201239
0.021910340204012113      8.248978633518543E-4     380.6723003902552
0.0213                    0.0012098284719741998    380.7433701255227
0.0213                    0.002256660839958568     380.71679615314997
0.02217518356945056       0.0018525621232534032    380.63531711755695
0.021940761212691264      0.0028437648004614726    380.5861734331709
0.021300000000000003      0.0032                   380.62143885548323
0.0213                    0.004218363977117183     380.3983284560508
0.022192182233111996      0.003796932193716086     380.4428755639233
0.022057918843597746      0.004941576107062728     380.28932941346136
0.0213                    0.005448400653814112     380.22959109346885
0.006                     0.020652173188321896     381.1906122976981
0.006                     0.0195                   381.3491383880644
0.006792642764566493      0.02055084564573834      381.0678922794311
0.00731293982786819       0.0195                   381.0190806784705
0.022197411984876736      0.006364539009927535     380.11170840164215
0.0213                    0.007047737259044164     380.0407857972588
0.008598868013944048      0.019500000000000003     380.8276542922219
0.0077764558394955025     0.020952773542579562     380.9018367689127
0.009902341510852303      0.0195                   380.6588828259534
0.00893694218971748       0.020439747775342427     380.7551048483007
0.022128078900687197      0.008146052384331663     379.9206920084136
0.0213                    0.00890298997376601      379.8538871657635
0.010951669779224096      0.02017134744683093      380.5143662440248
0.011292308603329264      0.0195                   380.49515259745107
0.02217418285813741       0.009816180012879877     379.76810653877254
0.0213                    0.010878065743925655     379.69119035136123
0.012042305370490959      0.020236251875526655     380.3899147845551
0.0127622666257036        0.019499999999999997     380.3338630565331
0.009979533747715787      0.020708398890485327     380.61551617300864
0.022222199834640383      0.011208650273857982     379.6611253706976
0.0213                    0.012852232575118281     379.56569617938834
0.014243153993439808      0.0195                   380.1793853070173
0.014041978014450557      0.020465665194306912     380.17152447247827
0.013000600182080553      0.020766515245622792     380.272446560915
0.0213                    0.014756884528578752     379.4798573093584
0.022253254117028054      0.0162760661203731       379.42928947062177
0.015724041361176014      0.0195                   380.0298727115123
0.015704626792680157      0.020561810725911785     380.00032528542306
0.0213                    0.016529310805662497     379.4313065241976
0.022182023188112125      0.01842715437338262      379.4071550381513
0.021830372997092833      0.020731866751738562     379.4276255329886
0.022067055461028034      0.01737406506966751      379.41395927845815
0.0213                    0.018067557542976603     379.4156822269859
0.01720288040477178       0.0195                   379.88303998879354
0.017582959119153738      0.02069351176253502      379.81034414478495
0.0213                    0.0195                   379.4525638593579
0.020351664177408052      0.020764703565463345     379.5409484901157
0.018605640781235167      0.0195                   379.7432873724951
0.0198                    0.0195                   379.6139011651255
0.019085361333163946      0.02049164306559967      379.6670154667069
0.005224241760656105      -0.021563187858932575    382.00129250768396
0.0039427724188189186     -0.019645974007013057    382.3004884505647
0.004074261460211337      -0.018468162264693513    382.4369403653516
0.003632517283036601      -0.01717156947555104     382.5665290415445
0.003792929511239618      -0.015865622592734323    382.68578290291043
0.0035435774318150655     -0.014443485918724904    382.78682713887406
0.0022193421876539536     -0.013834084213369886    382.80523923032655
0.003420273716560627      -0.01299702495772298     382.86905473819644
0.0034185302273129054     -0.011516273592246684    382.9318214454692
0.003532782505680487      -0.010111544486660465    382.97146165869094
0.0038950931885415848     -0.008804988096008408    382.99429966257617
0.0022133958535673426     -0.01056124748062572     382.94138036968235
0.003865138224603269      -0.007517802401417754    382.99089169994113
0.0010144350509975516     -0.003952156691665252    382.8672238680822
0.002                     -0.002938338757028645    382.82750070513424
0                         -0.0028702163120560187   382.82188210407287
0.002                     -5.000000000000004E-4    382.71866884022614
0                         -3.568694526723676E-4    382.7208502615237
0                         0.0021995964421227584    382.66192101756377
0.002                     0.0019383387570286442    382.6528710754583
0.0010813225184973072     0.003196542738678745     382.65509472875294
0                         0.004641224763174688     382.67508339969726
0.002                     0.003999999999999999     382.6516248992766
0                         0.007059118463816525     382.6969103696562
0.002                     0.006                    382.71226343504077
0.002                     0.007966319075663052     382.7001903545563
0                         0.009558201258856716     382.62756380911236
0.002                     0.010261176184406353     382.6046964525415
0                         0.012156221477313855     382.4578715966575
0.002                     0.012748985698921257     382.4191463665414
0                         0.014759129100121055     382.20209411556135
0.002                     0.015251014301078742     382.15400340683436
0                         0.01735686945267236      381.8906658066248
0.002                     0.01773882381559365      381.8377256072109
0                         0.01987021631205601      381.6187475754642
0.0010379669272291903     0.020974007588432847     381.5315085916227
0.002                     0.020033680924336945     381.5772699068193
0.0052205858899769        -0.004025717670477361    382.91960597521273
0.003493760161187407      -0.0038528679179990815   382.87990675010343
0.006                     -0.0036876173385131245   382.92368144877577
0.006                     -0.002371203078462041    382.8297119596138
0.0048871446705999275     -0.00295402127304496     382.84947686612446
0.003516939686583797      -0.0020767759526535796   382.7861145352444
0.006                     -0.001                   382.6529319838555
0.0048466560220216766     -0.0015255534919881885   382.7448229659171
0.003630523611154398      8.642634172206671E-4     382.64799400270175
0.006                     2.544357673032924E-4     382.5795945386489
0.004859667863899788      -1.3611722378261754E-4   382.65084010304275
0.0033788945300590257     0.0026128267115971176    382.6251085377575
0.006                     0.0014590603910250642    382.55434228369944
0.005065476944285673      0.0010720682854002386    382.60029975135313
0.005385658989964818      0.0019458303904334507    382.57765143694223
0.006                     0.0024372388508844167    382.55567364335116
0.003754624721485366      0.003999999999999999     382.615916130048
0.004553395557626712      0.0031761722195108944    382.6030309858554
0.005047443258169486      0.003999999999999999     382.6019369395158
0.006000000000000001      0.0032                   382.57474310234954
0.0053089983319719895     0.0026990991468633925    382.5835116172503
0.006                     0.003999999999999999     382.63039450311373
0.00536111250937976       0.003373651945006381     382.5942046387294
0.003855968506590891      -6.417912299475346E-4    382.7028681468552
0.004553824660843769      0.0020617100285042936    382.60339998624886
0.003141773372506351      0.005011373527827984     382.78967318185437
0.0036343894060228586     0.006                    382.7643636215469
0.004474567157752588      0.004995587169811284     383.4156977600914
0.005389748760617795      0.00465632245898989      385.0000236361784
0.004966110203989297      0.006                    382.8131626854531
0.006                     0.004952732771188843     388.9075606909767
0.0053660852244719354     0.005320928479998004     385.05596025349183
0.006                     0.006                    382.87951835396177
0.0033669234563254297     0.0073672321829284584    382.7430946938726
0.0035870676036132212     0.009222773686002016     382.6890620050894
0.004507600243219817      0.006914139172343068     382.7867620823884
0.00369329463168796       0.011242237669829751     382.5736005041927
0.005334951816190625      0.0067065450225375686    382.8223264080529
0.005999999999999999      0.007001991709534337     382.84307867633987
0.005272976960110099      0.007538630755553311     382.801360061641
0.006                     0.008003983419068671     382.81515760433626
0.005319616640078597      0.00851198672514394      382.77174904875477
0.005999999999999999      0.009005975128603006     382.7771726595426
0.0034605689828846515     0.013826566452339078     382.33760748623575
0.00541975737591924       0.009351199278952003     382.739460228545
0.005999999999999998      0.01000796683813734      382.72725881995297
0.005999999999999999      0.011009958547671676     382.6646304100694
0.004826987341403062      0.01015182101240374      382.6768137254699
0.0036560510073829593     0.016334605555532816     382.0322021329967
0.006                     0.01601991709534335      382.14048655466195
0.005999999999999999      0.01703964673267801      381.98052050699147
0.005082777323133126      0.016501306420085616     382.0356134360991
0.005999999999999998      0.015017925385809013     382.2765877972067
0.004899504488441727      0.015500101152353321     382.1738483530783
0.005999999999999999      0.012011950257206009     382.5888158018065
0.005045224707014547      0.011391938540437095     382.6021056512346
0.005999999999999999      0.014015933676274678     382.3955929485228
0.004842916414285225      0.014355730638863676     382.31489967099054
0.005294720557593847      0.01236951752779498      382.53170989231137
0.005999999999999999      0.013013941966740345     382.4993453558365
0.00485570330339008       0.013213906162748885     382.4380248475022
0.0037190233870608236     0.01893721613825626      381.6460339695296
0.005999999999999999      0.018187505863619644     381.7594538642265
0.00483750485992487       0.017626142803890663     381.84599721560295
0.003203177776042711      0.020781572495654734     381.4658244382518
0.005041569064690094      0.01889584065980416      381.6037702698195
0.004651317076464777      0.02022833849325424      381.41034912852416
0.005231429155610334      0.021107035537774682     381.26434769793536
0.004472483485096682      0.008100161163562611     382.7572501215793
0.004752482019345563      0.009071970605124045     382.72945304349844
0.003804895908954401      0.012716942326404057     382.45562739169185
0.00458888686083049       0.012202026240233744     382.5228966150876
0.0039911068847274965     0.015047037182519585     382.208676485012
0.003726142172463633      0.017658989527913234     381.8385589361134
0.007                     -0.0202                  391.819605543687
0.00805171432547183       -0.020199999999999992    391.83168113110315
0.007                     -0.019055919784183924    391.83548586386564
0.00910342865094366       -0.020199999999999996    391.83727025339823
0.006999999999999999      -0.017808103809516102    391.84589914401863
0.010155142976415489      -0.020199999999999992    391.8412220436715
0.011206857301887318      -0.020199999999999992    391.8441197291243
0.012258571627359148      -0.020199999999999992    391.84622577842765
0.007000000000000001      -0.006905056662792335    391.8661757624041
0.007                     -0.016459924449610235    391.8548340382011
0.007000000000000001      -0.015094943337207678    391.86193445969224
0.006999999999999999      -0.008270037775194892    391.87002995875156
0.006999999999999999      -0.013729962224805119    391.8671877321638
0.007                     -0.012364981112402564    391.87062155858285
0.007                     -0.011000000000000006    391.87224210796876
0.007                     -0.009635018887597449    391.8720466843691
0.013310285952830977      -0.020199999999999992    391.8476907962419
0.014362000278302806      -0.020199999999999992    391.84861532979795
0.015413714603774636      -0.020199999999999992    391.8490740041054
0.007                     -0.005540075550389777    391.860447328171
0.016465428929246465      -0.020199999999999992    391.84912211586897
0.01751533206280092       -0.020199999999999992    391.84879619251376
0.018535682202119718      -0.020199999999999992    391.848106659203
0.018968531630243823      -0.020599999999999997    385.91221060646296
0.007                     -0.004191896190483874    391.85283366326985
0.0194                    -0.0202                  391.8468015409036
0.007                     -0.0029440802158160525   391.84362286852866
0.007                     -0.0017999999999999997   391.82914688359534
0.009656983874743098      -0.001                   382.3583919026391
0.009103428650943643      -0.0017999999999999997   391.84583027860873
0.010155142976415473      -0.0017999999999999997   391.8496879689212
0.008542519326444686      -0.001                   382.44741707188456
0.008051714325471812      -0.0018                  391.8404476566291
0.007375422824010274      -0.001                   382.53007535249844
0.010771448423041513      -0.001                   382.2588482616472
0.011206857301887304      -0.0017999999999999997   391.85255052896764
0.011885912971339927      -0.001                   382.1480960048564
0.012258571627359133      -0.0018                  391.8546514147121
0.013310285952830965      -0.0017999999999999997   391.8561262795274
0.01300037751963834       -0.001                   382.0257017605559
0.014114842067936752      -0.001                   381.89132047215884
0.014362000278302794      -0.0017999999999999997   391.8570690751729
0.015413714603774626      -0.0018                  391.8575493150054
0.015229306616235165      -0.001                   381.74459725001765
0.016343771164533578      -0.001                   381.5850591724345
0.016465428929246455      -0.0017999999999999997   391.85762182037917
0.017515332062800922      -0.0017999999999999997   391.8573256412507
0.01745792340909262       -0.001                   381.4118602895858
0.018960660748377933      -0.0014061017735584134   386.5498755442226
0.018535682202119732      -0.0017999999999999997   391.8566821584632
0.0194                    -0.0017999999999999997   391.85548525369893
0.01850719594664124       -0.001                   381.233843827653
0.0194                    -0.001                   381.05982432573614
0.006813710010923982      -1.666596232527658E-4    382.54114252048566
0.009073114190636125      -1.2810723580787108E-4   382.37761099055757
0.010195673746191916      -1.5086492076545968E-4   382.28344600625184
0.007884604186700738      9.56881117840152E-5      382.461321103373
0.0068667498264215684     8.302412893469447E-4     382.51483021871945
0.011300256035225234      -1.628072717610175E-4    382.17960986367433
0.012414697566470763      -1.6289716791783581E-4   382.06308300869296
0.013528401488877228      -1.6285930438159342E-4   381.93478819530134
0.01463928939945311       -1.6299827361592994E-4   381.79471239232
0.0157455833100073        -1.638665259301608E-4    381.64286571307326
0.006678588325701417      0.0018863444814620045    382.51900315094736
0.006585887882844657      0.0026448668937537672    382.5313399425081
0.01684172947979921       -1.6678869292497506E-4   381.4798324948692
0.017906880348131222      -1.7369325567051638E-4   381.30872420119016
0.006887960640157779      0.0032                   382.5287718984896
0.018901466005174884      -1.838998591516091E-4    381.13657545434256
0.007362890448364084      0.002500751136422415     382.48736639838563
0.007930902416958392      0.0032                   382.4710529987313
0.008410158450410137      0.002333371930740097     382.4167831788786
0.009034681924851188      0.0032                   382.3934494260986
0.009552783068750957      0.002354798633352334     382.3298779161907
0.0101390584001064        0.0032                   382.30292638637803